 Gaussian 16, Revision B.01,

 ----------------------------------------------------------------------
 #pm3 opt iop(2/11=1) nosymm scrf=(cpcm,solvent=water) Geom=(NoDistance
 ,NoAngle)
 ----------------------------------------------------------------------

 ---------------------------------------------------------
 C:\Users\honza\Desktop\thmono\scan\thmono_conformation1.x
 ---------------------------------------------------------
 Symbolic Z-matrix:
 Charge = -2 Multiplicity = 1

 SCF Done:  E(RPM3) = -0.788527830794     A.U. after   15 cycles
 SCF Done:  E(RPM3) = -0.855601070025     A.U. after   13 cycles
 SCF Done:  E(RPM3) = -0.898575962799     A.U. after   14 cycles
 SCF Done:  E(RPM3) = -0.925201311107     A.U. after   13 cycles
 SCF Done:  E(RPM3) = -0.936373463870     A.U. after   14 cycles
 SCF Done:  E(RPM3) = -0.941321842601     A.U. after   14 cycles
 SCF Done:  E(RPM3) = -0.943667662342     A.U. after   14 cycles
 SCF Done:  E(RPM3) = -0.945354751997     A.U. after   14 cycles
 SCF Done:  E(RPM3) = -0.941679175430     A.U. after   14 cycles
 SCF Done:  E(RPM3) = -0.946550029682     A.U. after   14 cycles
 Optimization completed.
    -- Stationary point found.
 Normal termination of Gaussian 16 at Mon Jun 22 21:50:06 2020.

 ----------------------------------------------------------------------
 #BPW91/6-31G opt=readfc scrf=(cpcm,solvent=water) iop(2/11=1) nosymm g
 uess=checkpoint Geom=(NoDistance,NoAngle,allcheckpoint)
 ----------------------------------------------------------------------

 Structure from the checkpoint file:  "XX.chk"
 ---------------------------------------------------------
 C:\Users\honza\Desktop\thmono\scan\thmono_conformation1.x
 ---------------------------------------------------------
 Charge = -2 Multiplicity = 1

 Optimization completed.
 Normal termination of Gaussian 16 at Mon Jun 22 22:27:41 2020.

 ----------------------------------------------------------------------
 #BPW91/6-31G freq=roa scrf=(cpcm,solvent=water) iop(2/11=1) nosymm gue
 ss=checkpoint Geom=(NoDistance,NoAngle,checkpoint)
 ----------------------------------------------------------------------

 ---------
 mainPhase
 ---------
 Structure from the checkpoint file:  "XX.chk"
 Charge = -2 Multiplicity = 1

 Normal termination of Gaussian 16 at Mon Jun 22 22:47:11 2020.

 ----------------------------------------------------------------------
 #B3LYP/6-311++G** opt=readfc scrf=(cpcm,solvent=water) iop(2/11=1) nos
 ymm guess=checkpoint Geom=(NoDistance,NoAngle,allcheckpoint)
 ----------------------------------------------------------------------

 Structure from the checkpoint file:  "XX.chk"
 ---------
 mainPhase
 ---------
 Charge = -2 Multiplicity = 1

 SCF Done:  E(RB3LYP) =  -1517.57287045     A.U. after   12 cycles
 SCF Done:  E(RB3LYP) =  -1517.57314939     A.U. after    7 cycles
 SCF Done:  E(RB3LYP) =  -1517.57316435     A.U. after   12 cycles
 SCF Done:  E(RB3LYP) =  -1517.57314362     A.U. after   13 cycles
 SCF Done:  E(RB3LYP) =  -1517.57319851     A.U. after   12 cycles
 SCF Done:  E(RB3LYP) =  -1517.57320046     A.U. after   12 cycles
 SCF Done:  E(RB3LYP) =  -1517.57320261     A.U. after   10 cycles
 SCF Done:  E(RB3LYP) =  -1517.57320270     A.U. after    9 cycles
 SCF Done:  E(RB3LYP) =  -1517.57320272     A.U. after    8 cycles
    -- Stationary point found.
 Normal termination of Gaussian 16 at Tue Jun 23 04:28:56 2020.
 Gaussian 16:  ES64L-G16RevB.01 20-Dec-2017

 ----------------------------------------------------------------------
 #B3LYP/6-311++G** freq=roa scrf=(cpcm,solvent=water) iop(2/11=1) nosym
 m guess=checkpoint Geom=(NoDistance,NoAngle,checkpoint)
 ----------------------------------------------------------------------

 ----------------------
 testingComparisonPhase
 ----------------------
 Structure from the checkpoint file:  "XX.chk"
 Charge = -2 Multiplicity = 1

                          Input orientation:
 ---------------------------------------------------------------------
 Center     Atomic      Atomic             Coordinates (Angstroms)
 Number     Number       Type             X           Y           Z
 ---------------------------------------------------------------------
      1          8           0       -6.800625   -1.538102    1.185619
      2         15           0       -5.562462   -2.422118    1.394324
      3          8           0       -4.295163   -1.284249    1.137901
      4          6           0       -2.958115   -1.726420    1.212920
      5          1           0       -2.735483   -2.465472    0.431141
      6          1           0       -2.741078   -2.188058    2.184374
      7          6           0       -2.057972   -0.508673    1.038261
      8          1           0       -2.336602    0.245080    1.785080
      9          6           0       -2.096409    0.119997   -0.369996
     10          8           0       -2.342462    1.531729   -0.376865
     11          1           0       -2.106574    1.916680    0.475620
     12          6           0       -0.687208   -0.168959   -0.939970
     13          1           0       -0.688073   -1.136078   -1.447591
     14          8           0       -0.236055    0.798448   -1.859312
     15          1           0       -0.699318    1.622254   -1.638846
     16          1           0       -2.878424   -0.322429   -0.984473
     17          8           0       -0.688228   -0.916992    1.277810
     18          6           0        0.159137   -0.262801    0.344268
     19          1           0        0.448335    0.733886    0.683731
     20          8           0       -5.350697   -3.506674    0.320931
     21          8           0       -5.360755   -2.923081    2.836997
     22          7           0        1.399098   -1.023669    0.229463
     23          6           0        2.606465   -0.381786    0.486673
     24          8           0        2.703439    0.797159    0.792641
     25          7           0        3.709745   -1.200869    0.357797
     26          1           0        4.602012   -0.751999    0.529150
     27          6           0        1.351494   -2.372192   -0.078146
     28          6           0        2.440571   -3.163415   -0.190377
     29          6           0        2.364569   -4.624461   -0.525138
     30          1           0        2.809173   -5.231412    0.268455
     31          1           0        1.328883   -4.938624   -0.660350
     32          1           0        2.914983   -4.843458   -1.444348
     33          6           0        3.746928   -2.559686    0.031884
     34          8           0        4.823739   -3.142578   -0.041371
     35          1           0        0.352931   -2.766299   -0.208019
 ---------------------------------------------------------------------

 SCF Done:  E(RB3LYP) =  -1517.57320272     A.U. after    1 cycles

 Alpha  occ. eigenvalues --  -77.09967 -19.15193 -19.15039 -19.14027 -19.11840
 Alpha  occ. eigenvalues --  -19.11516 -19.09615 -19.02301 -19.02217 -19.02199
 Alpha  occ. eigenvalues --  -14.39471 -14.37817 -10.33639 -10.30152 -10.27870
 Alpha  occ. eigenvalues --  -10.24602 -10.24221 -10.24183 -10.23841 -10.21184
 Alpha  occ. eigenvalues --  -10.20161 -10.17564  -6.57924  -4.74317  -4.74005
 Alpha  occ. eigenvalues --   -4.73994  -1.09836  -1.07946  -1.06121  -1.05476
 Alpha  occ. eigenvalues --   -1.03439  -1.00839  -0.99163  -0.94395  -0.93636
 Alpha  occ. eigenvalues --   -0.87346  -0.87130  -0.82937  -0.78480  -0.77342
 Alpha  occ. eigenvalues --   -0.72305  -0.69393  -0.69005  -0.65077  -0.62300
 Alpha  occ. eigenvalues --   -0.61513  -0.58341  -0.56638  -0.54243  -0.53890
 Alpha  occ. eigenvalues --   -0.52672  -0.50451  -0.49919  -0.48573  -0.47612
 Alpha  occ. eigenvalues --   -0.47302  -0.46013  -0.45882  -0.44521  -0.43887
 Alpha  occ. eigenvalues --   -0.43392  -0.42615  -0.41580  -0.41342  -0.40902
 Alpha  occ. eigenvalues --   -0.40279  -0.39741  -0.39250  -0.36652  -0.35938
 Alpha  occ. eigenvalues --   -0.35677  -0.35379  -0.34145  -0.32616  -0.32116
 Alpha  occ. eigenvalues --   -0.31617  -0.30463  -0.29930  -0.28812  -0.28018
 Alpha  occ. eigenvalues --   -0.27424  -0.26904  -0.26720  -0.26352  -0.24914
 Alpha  occ. eigenvalues --   -0.23191  -0.22273  -0.20097
 Alpha virt. eigenvalues --   -0.05528  -0.01036  -0.00702  -0.00186   0.00333
 Alpha virt. eigenvalues --    0.00744   0.01405   0.02053   0.02880   0.03297
 Alpha virt. eigenvalues --    0.03471   0.03840   0.04654   0.04732   0.05315

 Mulliken charges:
               1
     1  O   -0.685793
     2  P    0.631104
     3  O   -0.307320
     4  C   -0.580787
     5  H    0.174503
     6  H    0.157429
     7  C    0.183293
     8  H    0.272935
     9  C   -0.224490
    10  O   -0.263672
    11  H    0.288959
    12  C   -0.360073
    13  H    0.259411
    14  O   -0.188410
    15  H    0.280160
    16  H    0.302113
    17  O   -0.082667
    18  C   -0.942706
    19  H    0.280563
    20  O   -0.734981
    21  O   -0.733005
    22  N    0.210521
    23  C    0.487422
    24  O   -0.386860
    25  N   -0.383099
    26  H    0.401009
    27  C    0.258842
    28  C    0.227470
    29  C   -0.658835
    30  H    0.180940
    31  H    0.151440
    32  H    0.181340
    33  C   -0.234422
    34  O   -0.404060
    35  H    0.241727
 Sum of Mulliken charges =  -2.00000

 Dipole moment (field-independent basis, Debye):
    X=             47.8533    Y=             22.7570    Z=            -12.3541  Tot=             54.4099
 Quadrupole moment (field-independent basis, Debye-Ang):
   XX=           -494.8191   YY=           -213.5015   ZZ=           -178.7985
   XY=           -119.4356   XZ=             74.2787   YZ=             38.2041

  Exact polarizability:   0.000   0.000   0.000   0.000   0.000   0.000
 Approx polarizability: 305.014 -33.197 296.537  -2.834  15.186 219.204

                      1                      2                      3
                      A                      A                      A
 Frequencies --     18.3830                32.7389                42.9405
 Red. masses --      6.9735                 7.1495                 8.1433
 Frc consts  --      0.0014                 0.0045                 0.0088
 IR Inten    --     14.8159                17.9422                 0.9192

                      4                      5                      6
                      A                      A                      A
 Frequencies --     49.4311                54.7408                59.5504
 Red. masses --      9.6265                 6.1680                 9.4057
 Frc consts  --      0.0139                 0.0109                 0.0197
 IR Inten    --      1.1718                 5.0514                 1.5872

                      7                      8                      9
                      A                      A                      A
 Frequencies --     96.8806               104.6949               125.7673
 Red. masses --      9.1699                 5.5824                 6.9836
 Frc consts  --      0.0507                 0.0361                 0.0651
 IR Inten    --      2.4590                 1.1846                 9.7458

                     10                     11                     12
                      A                      A                      A
 Frequencies --    151.4994               163.8524               170.6171
 Red. masses --      1.4166                 2.8288                 6.0965
 Frc consts  --      0.0192                 0.0447                 0.1046
 IR Inten    --      2.2996                 8.4774                11.3310

                     13                     14                     15
                      A                      A                      A
 Frequencies --    181.8145               204.6391               223.6280
 Red. masses --      6.7275                 3.2901                 1.5339
 Frc consts  --      0.1310                 0.0812                 0.0452
 IR Inten    --     10.7324                24.7286                93.7852

                     16                     17                     18
                      A                      A                      A
 Frequencies --    244.3126               275.6625               287.6854
 Red. masses --      4.1430                 2.9473                 3.5151
 Frc consts  --      0.1457                 0.1320                 0.1714
 IR Inten    --      0.0684                19.9242                12.0130

                     19                     20                     21
                      A                      A                      A
 Frequencies --    298.5007               327.5367               350.4928
 Red. masses --      5.3655                 4.3065                 6.1431
 Frc consts  --      0.2817                 0.2722                 0.4446
 IR Inten    --     24.7099                 3.3261                20.5040

                     22                     23                     24
                      A                      A                      A
 Frequencies --    353.6455               383.5880               402.9131
 Red. masses --     10.2986                 8.2962                 5.9063
 Frc consts  --      0.7589                 0.7192                 0.5649
 IR Inten    --      4.1671                 3.1637                16.3226

                     25                     26                     27
                      A                      A                      A
 Frequencies --    407.9342               445.9093               474.6296
 Red. masses --      4.4946                 3.8957                 1.1274
 Frc consts  --      0.4407                 0.4564                 0.1496
 IR Inten    --     23.5736                33.0470               199.9789

                     28                     29                     30
                      A                      A                      A
 Frequencies --    483.3122               486.8576               487.3871
 Red. masses --      6.5803                 8.1849                15.6192
 Frc consts  --      0.9056                 1.1431                 2.1860
 IR Inten    --     13.2624                73.9430               102.0723

                     31                     32                     33
                      A                      A                      A
 Frequencies --    514.1048               548.0838               561.6137
 Red. masses --      8.3208                 6.3746                 5.5624
 Frc consts  --      1.2957                 1.1282                 1.0337
 IR Inten    --    156.1262                44.6240                38.1768

                     34                     35                     36
                      A                      A                      A
 Frequencies --    589.6546               628.2813               651.5459
 Red. masses --      6.6213                 7.8673                 1.1533
 Frc consts  --      1.3564                 1.8297                 0.2884
 IR Inten    --     49.2827               176.8405               107.0151

                     37                     38                     39
                      A                      A                      A
 Frequencies --    662.0004               675.9194               740.9258
 Red. masses --      4.9889                 7.2517                 6.6801
 Frc consts  --      1.2882                 1.9520                 2.1606
 IR Inten    --     25.6086               150.4024                77.5100

                     40                     41                     42
                      A                      A                      A
 Frequencies --    757.8236               761.8185               769.2164
 Red. masses --     10.8175                 5.7512                 7.5035
 Frc consts  --      3.6603                 1.9666                 2.6158
 IR Inten    --     33.5223                10.5038                66.7290

                     43                     44                     45
                      A                      A                      A
 Frequencies --    795.1222               845.7430               914.4047
 Red. masses --      5.4587                 2.9376                 1.8766
 Frc consts  --      2.0333                 1.2380                 0.9245
 IR Inten    --     13.8707               100.9047                37.8895

                     46                     47                     48
                      A                      A                      A
 Frequencies --    919.9239               923.5701               927.4539
 Red. masses --     13.3211                 1.7912                 2.3945
 Frc consts  --      6.6419                 0.9002                 1.2135
 IR Inten    --    239.1476                 0.9538                 7.8708

                     49                     50                     51
                      A                      A                      A
 Frequencies --    988.4431              1033.6390              1036.1283
 Red. masses --      3.8073                 3.0326                 2.5363
 Frc consts  --      2.1917                 1.9090                 1.6042
 IR Inten    --    154.0192               184.5222               137.5250

                     52                     53                     54
                      A                      A                      A
 Frequencies --   1054.5600              1059.4398              1067.3979
 Red. masses --     20.0850                 5.0901                 1.4589
 Frc consts  --     13.1603                 3.3661                 0.9793
 IR Inten    --    733.7872                42.0789                 3.0118

                     55                     56                     57
                      A                      A                      A
 Frequencies --   1073.1925              1079.5603              1095.3963
 Red. masses --     14.9586                 3.0902                 3.0520
 Frc consts  --     10.1507                 2.1219                 2.1577
 IR Inten    --    849.5438               168.0313               107.4745

                     58                     59                     60
                      A                      A                      A
 Frequencies --   1096.8738              1119.1302              1129.5339
 Red. masses --      4.0455                 3.2301                 3.0388
 Frc consts  --      2.8677                 2.3836                 2.2843
 IR Inten    --     23.1669               224.1640                90.6155

                     61                     62                     63
                      A                      A                      A
 Frequencies --   1157.5374              1172.6179              1210.6508
 Red. masses --      2.9016                 4.5659                 1.1736
 Frc consts  --      2.2906                 3.6990                 1.0135
 IR Inten    --     61.5497                14.5529                38.7756

                     64                     65                     66
                      A                      A                      A
 Frequencies --   1239.3867              1254.6805              1256.7947
 Red. masses --      4.9230                 1.2199                 1.3548
 Frc consts  --      4.4555                 1.1315                 1.2609
 IR Inten    --     19.1210                74.4570                54.5982

                     67                     68                     69
                      A                      A                      A
 Frequencies --   1263.9355              1287.2553              1316.7452
 Red. masses --      1.6076                 1.5700                 1.3582
 Frc consts  --      1.5132                 1.5327                 1.3874
 IR Inten    --    202.5918               175.6978                 5.7889

                     70                     71                     72
                      A                      A                      A
 Frequencies --   1324.6086              1372.0834              1379.5588
 Red. masses --      1.4076                 1.3366                 1.3618
 Frc consts  --      1.4552                 1.4826                 1.5270
 IR Inten    --     59.3931                 9.3610                23.0830

                     73                     74                     75
                      A                      A                      A
 Frequencies --   1386.5548              1401.3529              1415.8451
 Red. masses --      2.1379                 1.4678                 1.3671
 Frc consts  --      2.4216                 1.6983                 1.6147
 IR Inten    --     90.5380                29.5618                16.6032

                     76                     77                     78
                      A                      A                      A
 Frequencies --   1416.9732              1417.9726              1428.8468
 Red. masses --      1.2742                 1.5462                 1.5400
 Frc consts  --      1.5073                 1.8317                 1.8524
 IR Inten    --      8.8170                30.4727               158.2972

                     79                     80                     81
                      A                      A                      A
 Frequencies --   1430.9920              1464.2702              1475.8649
 Red. masses --      1.7715                 1.0416                 1.6505
 Frc consts  --      2.1373                 1.3158                 2.1181
 IR Inten    --     44.5079                12.1522               107.0670

                     82                     83                     84
                      A                      A                      A
 Frequencies --   1489.7657              1517.9792              1682.5682
 Red. masses --      1.3156                 1.0843                 6.5035
 Frc consts  --      1.7203                 1.4720                10.8478
 IR Inten    --     82.5801                 4.6723               760.4388

                     85                     86                     87
                      A                      A                      A
 Frequencies --   1686.0178              1723.2021              2983.6454
 Red. masses --      6.1614                11.3774                 1.0575
 Frc consts  --     10.3194                19.9052                 5.5464
 IR Inten    --   1299.6789               833.7826                74.7233

                     88                     89                     90
                      A                      A                      A
 Frequencies --   3008.2608              3027.2203              3031.7446
 Red. masses --      1.0849                 1.1031                 1.0365
 Frc consts  --      5.7844                 5.9560                 5.6131
 IR Inten    --     73.7677                91.7856                35.8461

                     91                     92                     93
                      A                      A                      A
 Frequencies --   3070.3794              3080.9298              3085.0834
 Red. masses --      1.0855                 1.1009                 1.0857
 Frc consts  --      6.0295                 6.1567                 6.0883
 IR Inten    --      8.9254                22.2476                39.0659

                     94                     95                     96
                      A                      A                      A
 Frequencies --   3114.9373              3116.1167              3219.6470
 Red. masses --      1.0877                 1.1015                 1.0926
 Frc consts  --      6.2180                 6.3020                 6.6729
 IR Inten    --     23.7107                21.5246                 3.9651

                     97                     98                     99
                      A                      A                      A
 Frequencies --   3584.4508              3701.6078              3806.6863
 Red. masses --      1.0779                 1.0653                 1.0669
 Frc consts  --      8.1598                 8.5998                 9.1093
 IR Inten    --    108.6391               168.3319                69.3950

 - Thermochemistry -
 -------------------
 Temperature   298.150 Kelvin.  Pressure   1.00000 Atm.
 Atom     1 has atomic number  8 and mass  15.99491

 Molecular mass:   336.03587 amu.
 Principal axes and moments of inertia in atomic units:
                           1         2         3
     Eigenvalues --  3850.42146********************
           X            0.98839  -0.05690   0.14085
           Y            0.02767   0.97912   0.20140
           Z           -0.14937  -0.19517   0.96933
 This molecule is an asymmetric top.
 Rotational symmetry number  1.
 Warning -- assumption of classical behavior for rotation
           may cause significant error
 Rotational temperatures (Kelvin)      0.02249     0.00550     0.00480
 Rotational constants (GHZ):           0.46871     0.11454     0.10010
 Zero-point vibrational energy     666420.6 (Joules/Mol)
                                  159.27834 (Kcal/Mol)
 Warning -- explicit consideration of  34 degrees of freedom as
           vibrations may cause significant error
 Vibrational temperatures:     26.45    47.10    61.78    71.12    78.76
          (Kelvin)             85.68   139.39   150.63   180.95   217.97
                              235.75   245.48   261.59   294.43   321.75
                              351.51   396.62   413.92   429.48   471.25
                              504.28   508.82   551.90   579.70   586.93
                              641.56   682.89   695.38   700.48   701.24
                              739.68   788.57   808.04   848.38   903.96
                              937.43   952.47   972.50  1066.03  1090.34
                             1096.09  1106.73  1144.00  1216.84  1315.62
                             1323.57  1328.81  1334.40  1422.15  1487.18
                             1490.76  1517.28  1524.30  1535.75  1544.08
                             1553.25  1576.03  1578.16  1610.18  1625.15
                             1665.44  1687.14  1741.86  1783.20  1805.21
                             1808.25  1818.52  1852.07  1894.50  1905.82
                             1974.12  1984.88  1994.94  2016.23  2037.09
                             2038.71  2040.15  2055.79  2058.88  2106.76
                             2123.44  2143.44  2184.03  2420.84  2425.80
                             2479.30  4292.80  4328.22  4355.49  4362.00
                             4417.59  4432.77  4438.75  4481.70  4483.40
                             4632.35  5157.23  5325.79  5476.97

 Zero-point correction=                           0.253826 (Hartree/Particle)
 Thermal correction to Energy=                    0.275076
 Thermal correction to Enthalpy=                  0.276020
 Thermal correction to Gibbs Free Energy=         0.201283
 Sum of electronic and zero-point Energies=          -1517.319377
 Sum of electronic and thermal Energies=             -1517.298127
 Sum of electronic and thermal Enthalpies=           -1517.297182
 Sum of electronic and thermal Free Energies=        -1517.371920

                     E (Thermal)             CV                S
                      KCal/Mol        Cal/Mol-Kelvin    Cal/Mol-Kelvin
 Total                  172.613             78.471            157.298
 Electronic               0.000              0.000              0.000
 Translational            0.889              2.981             43.331
 Rotational               0.889              2.981             35.346
 Vibrational            170.835             72.509             78.621
 Vibration     1          0.593              1.986              6.802
 Vibration     2          0.594              1.983              5.656
 Vibration     3          0.595              1.980              5.119
 Vibration     4          0.595              1.978              4.840
 Vibration     5          0.596              1.976              4.638
 Vibration     6          0.597              1.974              4.472
 Vibration     7          0.603              1.951              3.516
 Vibration     8          0.605              1.945              3.365
 Vibration     9          0.611              1.927              3.010
 Vibration    10          0.619              1.901              2.653
 Vibration    11          0.623              1.887              2.505
 Vibration    12          0.626              1.879              2.429
 Vibration    13          0.630              1.864              2.310
 Vibration    14          0.640              1.833              2.091
 Vibration    15          0.649              1.805              1.930
 Vibration    16          0.660              1.772              1.771
 Vibration    17          0.677              1.718              1.560
 Vibration    18          0.685              1.697              1.488
 Vibration    19          0.692              1.677              1.425
 Vibration    20          0.711              1.620              1.272
 Vibration    21          0.727              1.574              1.164
 Vibration    22          0.730              1.568              1.150
 Vibration    23          0.753              1.505              1.025
 Vibration    24          0.768              1.464              0.952
 Vibration    25          0.773              1.453              0.934
 Vibration    26          0.805              1.370              0.808
 Vibration    27          0.831              1.306              0.725
 Vibration    28          0.839              1.287              0.701
 Vibration    29          0.843              1.279              0.692
 Vibration    30          0.843              1.278              0.690
 Vibration    31          0.869              1.219              0.624
 Vibration    32          0.903              1.144              0.548
 Vibration    33          0.917              1.114              0.521
 Vibration    34          0.947              1.054              0.468

 Optimization completed.
    -- Stationary point found.
 Normal termination of Gaussian 16 at Tue Jun 23 10:09:16 2020.
